 Gaussian 09, Revision D.01,
 Gaussian 09:  ES64L-G09RevD.01 24-Apr-2013

 ----------------------------------------------------------------------
 # bp86/gen opt=tight int=ultrafine guess=checkpoint geom=checkpoint no
 symm scf=(xqc,maxconventionalcycles=128) scrf=(solvent=n-Pentadecane)
 ----------------------------------------------------------------------

 ------------
 EB21Na_nP_in
 ------------
 Structure from the checkpoint file:  "nP_EB11Na_in.chk"
 Charge =  1 Multiplicity = 1

 SCF Done:  E(RB-P86) =  -2295.38146777     A.U. after    1 cycles

 Alpha  occ. eigenvalues --  -37.98141 -18.90330 -18.90279 -18.90267 -18.85067
 Alpha  occ. eigenvalues --  -18.85008 -18.85007 -18.83086 -18.83079 -18.83034
 Alpha  occ. eigenvalues --  -14.11982 -14.11939 -14.11918 -10.10067 -10.10023
 Alpha  occ. eigenvalues --  -10.10007 -10.07379 -10.07356 -10.07315 -10.03768
 Alpha  occ. eigenvalues --  -10.03750 -10.03709 -10.01916 -10.01887 -10.01864
 Alpha  occ. eigenvalues --   -9.99466  -9.99452  -9.99443  -9.97839  -9.97826
 Alpha  occ. eigenvalues --   -9.97793  -9.97554  -9.97535  -9.97512  -9.94518
 Alpha  occ. eigenvalues --   -9.94490  -9.94480  -9.94370  -9.94352  -9.94326
 Alpha  occ. eigenvalues --   -9.94133  -9.94123  -9.94122  -9.93832  -9.93822
 Alpha  occ. eigenvalues --   -9.93806  -2.07816  -1.08022  -1.07940  -1.07900
 Alpha  occ. eigenvalues --   -1.05527  -1.05523  -1.05403  -1.01106  -1.01072
 Alpha  occ. eigenvalues --   -1.00696  -0.99330  -0.98955  -0.98924  -0.91664
 Alpha  occ. eigenvalues --   -0.91629  -0.91616  -0.80660  -0.79836  -0.79827
 Alpha  occ. eigenvalues --   -0.78199  -0.78185  -0.77694  -0.72977  -0.72567
 Alpha  occ. eigenvalues --   -0.72554  -0.70850  -0.70841  -0.70626  -0.69016
 Alpha  occ. eigenvalues --   -0.69003  -0.66917  -0.66223  -0.66210  -0.66086
 Alpha  occ. eigenvalues --   -0.65909  -0.65822  -0.65799  -0.61923  -0.59459
 Alpha  occ. eigenvalues --   -0.59438  -0.57877  -0.57870  -0.57529  -0.56180
 Alpha  occ. eigenvalues --   -0.55910  -0.55902  -0.54081  -0.54063  -0.53846
 Alpha  occ. eigenvalues --   -0.53198  -0.53191  -0.52466  -0.51685  -0.51656
 Alpha  occ. eigenvalues --   -0.51520  -0.49614  -0.49038  -0.49008  -0.48371
 Alpha  occ. eigenvalues --   -0.47958  -0.47913  -0.47583  -0.46385  -0.46359
 Alpha  occ. eigenvalues --   -0.46327  -0.45667  -0.45651  -0.44600  -0.44317
 Alpha  occ. eigenvalues --   -0.44307  -0.44024  -0.44005  -0.43786  -0.42970
 Alpha  occ. eigenvalues --   -0.42951  -0.42541  -0.42164  -0.42143  -0.42105
 Alpha  occ. eigenvalues --   -0.41252  -0.41235  -0.41106  -0.40663  -0.40407
 Alpha  occ. eigenvalues --   -0.40398  -0.39917  -0.39910  -0.39626  -0.39435
 Alpha  occ. eigenvalues --   -0.39427  -0.39345  -0.39112  -0.39088  -0.39060
 Alpha  occ. eigenvalues --   -0.38162  -0.38160  -0.38089  -0.37929  -0.37903
 Alpha  occ. eigenvalues --   -0.37840  -0.37479  -0.37453  -0.37331  -0.35857
 Alpha  occ. eigenvalues --   -0.35841  -0.35508  -0.35150  -0.34873  -0.34857
 Alpha  occ. eigenvalues --   -0.34690  -0.34538  -0.34527  -0.34075  -0.34058
 Alpha  occ. eigenvalues --   -0.33965  -0.33897  -0.33880  -0.33726  -0.33572
 Alpha  occ. eigenvalues --   -0.33550  -0.33486  -0.33090  -0.32809  -0.32769
 Alpha  occ. eigenvalues --   -0.29745  -0.29712  -0.29141  -0.28174  -0.28147
 Alpha  occ. eigenvalues --   -0.28099  -0.27158  -0.27123  -0.27010
 Alpha virt. eigenvalues --   -0.10788  -0.10228  -0.10189  -0.09499  -0.09047
 Alpha virt. eigenvalues --   -0.09008  -0.03488  -0.01502  -0.00921  -0.00893
 Alpha virt. eigenvalues --    0.00143   0.00459   0.00510   0.01704   0.01962

 Mulliken charges:
               1
     1  N   -0.316301
     2  C   -0.140942
     3  C    0.580033
     4  O   -0.394390
     5  C   -0.415625
     6  C   -0.117051
     7  C   -0.490241
     8  C   -0.507475
     9  O   -0.388755
    10  C    0.024512
    11  C    0.505631
    12  O   -0.444231
    13  C   -0.117865
    14  C   -0.514232
    15  C   -0.498948
    16  C    0.024016
    17  O   -0.389202
    18  O   -0.444015
    19  O   -0.444237
    20  O   -0.395058
    21  O   -0.394490
    22  N   -0.316432
    23  N   -0.317353
    24  C   -0.139572
    25  C   -0.140325
    26  C    0.580505
    27  C    0.580580
    28  C   -0.415043
    29  C   -0.415506
    30  C   -0.117320
    31  C   -0.117420
    32  C   -0.489800
    33  C   -0.490032
    34  C   -0.508546
    35  C   -0.507685
    36  O   -0.388439
    37  C    0.024851
    38  C    0.505114
    39  C    0.506491
    40  C   -0.118134
    41  C   -0.118221
    42  C   -0.513959
    43  C   -0.515065
    44  C   -0.498470
    45  C   -0.497773
    46  H    0.242404
    47  H    0.157527
    48  H    0.194153
    49  H    0.169660
    50  H    0.172500
    51  H    0.178553
    52  H    0.174023
    53  H    0.168455
    54  H    0.186340
    55  H    0.183516
    56  H    0.178929
    57  H    0.180761
    58  H    0.161762
    59  H    0.163824
    60  H    0.178253
    61  H    0.184812
    62  H    0.196846
    63  H    0.226714
    64  H    0.202674
    65  H    0.241215
    66  H    0.157557
    67  H    0.172297
    68  H    0.194839
    69  H    0.169492
    70  H    0.173784
    71  H    0.168294
    72  H    0.178351
    73  H    0.186300
    74  H    0.183535
    75  H    0.180889
    76  H    0.161781
    77  H    0.179000
    78  H    0.164052
    79  H    0.178425
    80  H    0.184720
    81  H    0.226297
    82  H    0.202368
    83  H    0.197545
    84  H    0.169570
    85  H    0.172301
    86  H    0.193824
    87  H    0.168328
    88  H    0.178347
    89  H    0.173907
    90  H    0.157431
    91  H    0.242276
    92  H    0.187281
    93  H    0.182746
    94  H    0.161577
    95  H    0.178671
    96  H    0.181291
    97  H    0.177662
    98  H    0.185099
    99  H    0.164691
   100  H    0.202575
   101  H    0.197542
   102  H    0.226045
   103  Na   0.202808
 Sum of Mulliken charges =   1.00000

 Dipole moment (field-independent basis, Debye):
    X=              0.0778    Y=             67.9586    Z=             61.8558  Tot=             91.8941
 Quadrupole moment (field-independent basis, Debye-Ang):
   XX=           -191.7211   YY=            770.1606   ZZ=            519.2021
   XY=              1.2542   XZ=              0.2295   YZ=            874.8481

 Optimization completed.
    -- Stationary point found.

                          Input orientation:
 ---------------------------------------------------------------------
 Center     Atomic      Atomic             Coordinates (Angstroms)
 Number     Number       Type             X           Y           Z
 ---------------------------------------------------------------------
      1          7           0       -3.024407   12.376698   12.344147
      2          6           0       -3.592801   13.606550   11.754295
      3          6           0       -2.798538   14.810263   12.314616
      4          8           0       -1.794845   14.687622   13.018716
      5          6           0       -3.308647   12.080216   13.762189
      6          6           0       -5.154292   13.714418   11.852264
      7          6           0       -5.834459   12.339985   11.696842
      8          6           0       -5.707201   14.657066   10.760288
      9          8           0       -3.263894   16.002793   11.899925
     10          6           0       -1.418458   10.453107   12.213327
     11          6           0       -1.971715   11.799295   11.678722
     12          8           0       -1.487569   12.294326   10.635706
     13          6           0       -2.061432    9.203284   11.552894
     14          6           0       -3.596197    9.180838   11.667721
     15          6           0       -1.467934    7.912883   12.152656
     16          6           0       -2.471661   17.184278   12.256431
     17          8           0        0.002253   10.362826   11.859873
     18          8           0       -0.873797   16.319063   10.649208
     19          8           0        2.294865   13.738556   10.617734
     20          8           0        1.404023   15.419260   12.983596
     21          8           0        0.403177   12.274939   13.010260
     22          7           0        3.018578   12.387187   12.330391
     23          7           0        0.000321   17.631276   12.321223
     24          6           0        2.247507   11.266760   11.751073
     25          6           0        1.335295   17.503975   11.699011
     26          6           0        0.802220   11.352613   12.297314
     27          6           0        1.992429   16.216359   12.250590
     28          6           0        3.418422   12.308872   13.749703
     29          6           0       -0.079702   18.041525   13.737097
     30          6           0        2.943956    9.867610   11.882190
     31          6           0        2.211947   18.802218   11.771265
     32          6           0        4.472511    9.973530   11.712615
     33          6           0        1.356691   20.075177   11.616182
     34          6           0        2.404388    8.882355   10.821940
     35          6           0        3.288062   18.800054   10.662958
     36          8           0        3.241989   16.010944   11.796402
     37          6           0        3.877289   14.739593   12.159776
     38          6           0        2.980647   13.580347   11.653212
     39          6           0       -1.039606   16.996969   11.688716
     40          6           0        5.272267   14.796377   11.479859
     41          6           0       -3.249378   18.373673   11.629904
     42          6           0        6.061955   13.481531   11.608275
     43          6           0       -2.523022   19.721721   11.786713
     44          6           0        6.098184   15.967330   12.048806
     45          6           0       -4.665525   18.465553   12.233043
     46          1           0        1.136420   17.294570   10.630757
     47          1           0        2.723411   18.835180   12.753925
     48          1           0        3.939360   17.915898   10.702932
     49          1           0        2.811214   18.829459    9.665385
     50          1           0        3.919214   19.700588   10.758351
     51          1           0        2.017517   20.959532   11.607113
     52          1           0        0.806432   20.062254   10.657554
     53          1           0        0.627462   20.214931   12.429976
     54          1           0        3.974029   14.717843   13.257946
     55          1           0        5.075050   14.979781   10.405681
     56          1           0        7.061760   16.041450   11.515487
     57          1           0        5.579025   16.933686   11.947385
     58          1           0        6.319988   15.805712   13.120564
     59          1           0        6.309881   13.257242   12.662437
     60          1           0        5.522976   12.619557   11.184172
     61          1           0        7.018262   13.578039   11.066193
     62          1           0        4.490356   12.524543   13.882076
     63          1           0        2.814173   12.998761   14.361534
     64          1           0        3.237815   11.285521   14.107272
     65          1           0        2.164448   11.499454   10.672563
     66          1           0        2.726261    9.452611   12.886477
     67          1           0        2.878893    7.895236   10.959359
     68          1           0        1.314696    8.752407   10.876193
     69          1           0        2.656533    9.236535    9.804885
     70          1           0        4.728269   10.407335   10.728461
     71          1           0        4.960282   10.579906   12.492268
     72          1           0        4.914150    8.962459   11.753281
     73          1           0       -1.492597   10.401918   13.312383
     74          1           0       -1.793841    9.260347   10.479794
     75          1           0       -0.370711    7.874848   12.061705
     76          1           0       -1.728453    7.821887   13.224023
     77          1           0       -1.882322    7.032032   11.632286
     78          1           0       -3.923397    9.097745   12.720822
     79          1           0       -4.068352   10.071512   11.223590
     80          1           0       -3.987257    8.295367   11.137925
     81          1           0       -2.419237   12.271123   14.385516
     82          1           0       -4.116453   12.743345   14.102552
     83          1           0       -3.650315   11.041942   13.896949
     84          1           0       -5.511605   14.236255    9.756197
     85          1           0       -6.800780   14.755078   10.874305
     86          1           0       -5.264240   15.661968   10.800411
     87          1           0       -5.568955   11.626205   12.492812
     88          1           0       -6.930325   12.472051   11.720665
     89          1           0       -5.577282   11.882794   10.723825
     90          1           0       -5.422337   14.132340   12.843125
     91          1           0       -3.327179   13.559522   10.681033
     92          1           0       -2.457399   17.257704   13.356943
     93          1           0       -3.329920   18.144997   10.549258
     94          1           0       -4.616113   18.689983   13.315248
     95          1           0       -5.227653   19.281995   11.747390
     96          1           0       -5.238117   17.533856   12.101215
     97          1           0       -1.507617   19.709881   11.359378
     98          1           0       -3.096730   20.506287   11.264250
     99          1           0       -2.456242   20.024181   12.848439
    100          1           0        0.904889   18.418910   14.047393
    101          1           0       -0.808485   18.854306   13.880441
    102          1           0       -0.337788   17.182374   14.378298
    103         11           0       -0.008004   14.131613   11.352590
 ---------------------------------------------------------------------

 Normal termination of Gaussian 09 at Fri Oct 26 08:58:35 2018.
